TITLE = "Example: Mixed Nodal and Cell-Centered Data"
VARIABLES =  "X" "Y" "Z" "mu"
ZONE T="Triangle Mesh", N=284, E=142, DATAPACKING=BLOCK, ZONETYPE=FETRIANGLE
VARLOCATION=([1-4]=NODAL)
62.390541076660156 62.509281158447266 71.89874267578125 71.89874267578125 62.509281158447266 
62.605159759521484 71.89874267578125 71.89874267578125 62.605159759521484 62.69841003417969 
71.89874267578125 71.89874267578125 62.69841003417969 62.799129486083984 71.89874267578125 
71.89874267578125 62.799129486083984 62.90705871582031 71.89874267578125 71.89874267578125 
62.90705871582031 63.02214813232422 71.89874267578125 71.89874267578125 63.02214813232422 
63.1442985534668 71.89874267578125 71.89874267578125 63.1442985534668 63.27280044555664 
71.89874267578125 71.89874267578125 63.27280044555664 63.40616989135742 71.89874267578125 
71.89874267578125 63.40616989135742 63.53445816040039 71.89874267578125 71.89874267578125 
63.53445816040039 63.79743957519531 71.89874267578125 71.89874267578125 63.79743957519531 
64.1047592163086 71.89874267578125 71.89874267578125 64.1047592163086 64.38986206054688 
71.89874267578125 71.89874267578125 64.38986206054688 64.67890167236328 71.89874267578125 
71.89874267578125 64.67890167236328 64.97135925292969 71.89874267578125 71.89874267578125 
64.97135925292969 65.26260375976562 71.89874267578125 71.89874267578125 65.26260375976562 
65.55451202392578 71.89874267578125 71.89874267578125 65.55451202392578 65.84696960449219 
71.89874267578125 71.89874267578125 65.84696960449219 66.13955688476562 71.89874267578125 
71.89874267578125 66.13955688476562 66.43238067626953 71.89874267578125 71.89874267578125 
66.43238067626953 66.72531127929688 71.89874267578125 71.89874267578125 66.72531127929688 
67.01822662353516 71.89874267578125 71.89874267578125 67.01822662353516 67.31109619140625 
71.89874267578125 71.89874267578125 67.31109619140625 67.60379028320312 71.89874267578125 
71.89874267578125 67.60379028320312 67.89617919921875 71.89874267578125 71.89874267578125 
67.89617919921875 68.18817138671875 71.89874267578125 71.89874267578125 68.18817138671875 
68.47959899902344 71.89874267578125 71.89874267578125 68.47959899902344 68.77033996582031 
71.89874267578125 71.89874267578125 68.77033996582031 69.06024932861328 71.89874267578125 
71.89874267578125 69.06024932861328 69.34874725341797 71.89874267578125 71.89874267578125 
67.77406311035156 67.72628021240234 71.89874267578125 71.89874267578125 67.82183837890625 
67.77406311035156 71.89874267578125 71.89874267578125 67.86962127685547 67.82183837890625 
71.89874267578125 71.89874267578125 67.91739654541016 67.86962127685547 71.89874267578125 
71.89874267578125 67.96517181396484 67.91739654541016 71.89874267578125 71.89874267578125 
68.01294708251953 67.96517181396484 71.89874267578125 71.89874267578125 68.1562728881836 
68.1084976196289 71.89874267578125 71.89874267578125 68.1084976196289 68.06072235107422 
71.89874267578125 71.89874267578125 68.06072235107422 68.01294708251953 71.89874267578125 
71.89874267578125 68.20403289794922 68.1562728881836 71.89874267578125 71.89874267578125 
68.25180053710938 68.20403289794922 71.89874267578125 71.89874267578125 68.4428482055664 
68.39508819580078 71.89874267578125 71.89874267578125 68.39508819580078 68.34732818603516 
71.89874267578125 71.89874267578125 68.34732818603516 68.299560546875 71.89874267578125 
71.89874267578125 68.53836059570312 68.49060821533203 71.89874267578125 71.89874267578125 
68.299560546875 68.25180053710938 71.89874267578125 71.89874267578125 68.49060821533203 
68.4428482055664 71.89874267578125 71.89874267578125 68.58612060546875 68.53836059570312 
71.89874267578125 71.89874267578125 68.63387298583984 68.58612060546875 71.89874267578125 
71.89874267578125 68.68163299560547 68.63387298583984 71.89874267578125 71.89874267578125 
68.7293930053711 68.68163299560547 71.89874267578125 71.89874267578125 68.77713775634766 
68.7293930053711 71.89874267578125 71.89874267578125 68.82489013671875 68.77713775634766 
71.89874267578125 71.89874267578125 68.87264251708984 68.82489013671875 71.89874267578125 
71.89874267578125 69.34874725341797 69.63642120361328 71.89874267578125 71.89874267578125 
69.0158920288086 68.9681396484375 71.89874267578125 71.89874267578125 68.9681396484375 
68.9203872680664 71.89874267578125 71.89874267578125 69.15912628173828 69.11138153076172 
71.89874267578125 71.89874267578125 69.06363677978516 69.0158920288086 71.89874267578125 
71.89874267578125 69.11138153076172 69.06363677978516 71.89874267578125 71.89874267578125 
69.20687103271484 69.15912628173828 71.89874267578125 71.89874267578125 68.9203872680664 
68.87264251708984 71.89874267578125 71.89874267578125 69.30235290527344 69.25462341308594 
71.89874267578125 71.89874267578125 69.25462341308594 69.20687103271484 71.89874267578125 
71.89874267578125 69.39781951904297 69.35009002685547 71.89874267578125 71.89874267578125 
69.44554901123047 69.39781951904297 71.89874267578125 71.89874267578125 69.49327850341797 
69.44554901123047 71.89874267578125 71.89874267578125 69.35009002685547 69.30235290527344 
71.89874267578125 71.89874267578125 69.63642120361328 69.58870697021484 71.89874267578125 
71.89874267578125 69.54100036621094 69.49327850341797 71.89874267578125 71.89874267578125 
69.58870697021484 69.54100036621094 71.89874267578125 71.89874267578125 0.49833300709724426 
0.8032848238945007 0.49833300709724426 0.8032848238945007 0.8032848238945007 1.300842046737671 
0.8032848238945007 1.300842046737671 1.300842046737671 1.7969659566879272 1.300842046737671 
1.7969659566879272 1.7969659566879272 2.289484977722168 1.7969659566879272 2.289484977722168 
2.289484977722168 2.780435085296631 2.289484977722168 2.780435085296631 2.780435085296631 
3.2714340686798096 2.780435085296631 3.2714340686798096 3.2714340686798096 3.7642951011657715 
3.2714340686798096 3.7642951011657715 3.7642951011657715 4.261301040649414 3.7642951011657715 
4.261301040649414 4.261301040649414 4.764721870422363 4.261301040649414 4.764721870422363 
4.764721870422363 5.277263164520264 4.764721870422363 5.277263164520264 5.277263164520264 
5.739370822906494 5.277263164520264 5.739370822906494 5.739370822906494 6.177056789398193 
5.739370822906494 6.177056789398193 6.177056789398193 6.629692077636719 6.177056789398193 
6.629692077636719 6.629692077636719 7.0801191329956055 6.629692077636719 7.0801191329956055 
7.0801191329956055 7.528532028198242 7.0801191329956055 7.528532028198242 7.528532028198242 
7.977841854095459 7.528532028198242 7.977841854095459 7.977841854095459 8.426780700683594 
7.977841854095459 8.426780700683594 8.426780700683594 8.875402450561523 8.426780700683594 
8.875402450561523 8.875402450561523 9.323945999145508 8.875402450561523 9.323945999145508 
9.323945999145508 9.772343635559082 9.323945999145508 9.772343635559082 9.772343635559082 
10.220640182495117 9.772343635559082 10.220640182495117 10.220640182495117 10.668880462646484 
10.220640182495117 10.668880462646484 10.668880462646484 11.117050170898438 10.668880462646484 
11.117050170898438 11.117050170898438 11.565179824829102 11.117050170898438 11.565179824829102 
11.565179824829102 12.013230323791504 11.565179824829102 12.013230323791504 12.013230323791504 
12.461159706115723 12.013230323791504 12.461159706115723 12.461159706115723 12.908909797668457 
12.461159706115723 12.908909797668457 12.908909797668457 13.356389999389648 12.908909797668457 
13.356389999389648 13.356389999389648 13.80348014831543 13.356389999389648 13.80348014831543 
13.80348014831543 14.249799728393555 13.80348014831543 14.249799728393555 14.695630073547363 
14.695630073547363 14.695630073547363 14.695630073547363 14.695630073547363 14.695630073547363 
14.695630073547363 14.695630073547363 14.695630073547363 14.695630073547363 14.695630073547363 
14.695630073547363 14.695630073547363 14.695630073547363 14.695630073547363 14.695630073547363 
14.695630073547363 14.695630073547363 14.695630073547363 14.695630073547363 14.695630073547363 
14.695630073547363 14.695630073547363 14.695630073547363 14.695630073547363 14.695630073547363 
14.695630073547363 14.695630073547363 14.695630073547363 14.695630073547363 14.695630073547363 
14.695630073547363 14.695630073547363 14.695630073547363 14.695630073547363 14.695630073547363 
14.695630073547363 14.695630073547363 14.695630073547363 14.695630073547363 14.695630073547363 
14.695630073547363 14.695630073547363 14.695630073547363 14.695630073547363 14.695630073547363 
14.695630073547363 14.695630073547363 14.695630073547363 14.695630073547363 14.695630073547363 
14.695630073547363 14.695630073547363 14.695630073547363 14.695630073547363 14.695630073547363 
14.695630073547363 14.695630073547363 14.695630073547363 14.695630073547363 14.695630073547363 
14.695630073547363 14.695630073547363 14.695630073547363 14.695630073547363 14.695630073547363 
14.695630073547363 14.695630073547363 14.695630073547363 14.695630073547363 14.695630073547363 
14.695630073547363 14.695630073547363 14.695630073547363 14.695630073547363 14.695630073547363 
14.695630073547363 14.695630073547363 14.695630073547363 14.695630073547363 14.695630073547363 
14.695630073547363 14.695630073547363 14.695630073547363 14.695630073547363 14.695630073547363 
14.695630073547363 14.695630073547363 14.695630073547363 14.695630073547363 14.695630073547363 
14.695630073547363 14.695630073547363 14.695630073547363 14.695630073547363 14.695630073547363 
14.249799728393555 14.695630073547363 14.249799728393555 14.695630073547363 14.695630073547363 
14.695630073547363 14.695630073547363 14.695630073547363 14.695630073547363 14.695630073547363 
14.695630073547363 14.695630073547363 14.695630073547363 14.695630073547363 14.695630073547363 
14.695630073547363 14.695630073547363 14.695630073547363 14.695630073547363 14.695630073547363 
14.695630073547363 14.695630073547363 14.695630073547363 14.695630073547363 14.695630073547363 
14.695630073547363 14.695630073547363 14.695630073547363 14.695630073547363 14.695630073547363 
14.695630073547363 14.695630073547363 14.695630073547363 14.695630073547363 14.695630073547363 
14.695630073547363 14.695630073547363 14.695630073547363 14.695630073547363 14.695630073547363 
14.695630073547363 14.695630073547363 14.695630073547363 14.695630073547363 14.695630073547363 
14.695630073547363 14.695630073547363 14.695630073547363 14.695630073547363 14.695630073547363 
14.695630073547363 14.695630073547363 14.695630073547363 14.695630073547363 14.695630073547363 
14.695630073547363 14.695630073547363 14.695630073547363 14.695630073547363 14.695630073547363 
14.695630073547363 14.695630073547363 14.695630073547363 14.695630073547363 14.695630073547363 
14.695630073547363 14.695630073547363 14.695630073547363 -3.9617819786071777 -3.852130889892578 
-3.9617819786071777 -3.852130889892578 -3.852130889892578 -3.6786611080169678 -3.852130889892578 
-3.6786611080169678 -3.6786611080169678 -3.4996368885040283 -3.6786611080169678 -3.4996368885040283 
-3.4996368885040283 -3.3148069381713867 -3.4996368885040283 -3.3148069381713867 -3.3148069381713867 
-3.129868984222412 -3.3148069381713867 -3.129868984222412 -3.129868984222412 -2.949441909790039 
-3.129868984222412 -2.949441909790039 -2.949441909790039 -2.779046058654785 -2.949441909790039 
-2.779046058654785 -2.779046058654785 -2.6263620853424072 -2.779046058654785 -2.6263620853424072 
-2.6263620853424072 -2.501667022705078 -2.6263620853424072 -2.501667022705078 -2.501667022705078 
-2.415750026702881 -2.501667022705078 -2.415750026702881 -2.415750026702881 -2.373418092727661 
-2.415750026702881 -2.373418092727661 -2.373418092727661 -2.3450920581817627 -2.373418092727661 
-2.3450920581817627 -2.3450920581817627 -2.318418025970459 -2.3450920581817627 -2.318418025970459 
-2.318418025970459 -2.297214984893799 -2.318418025970459 -2.297214984893799 -2.297214984893799 
-2.280479907989502 -2.297214984893799 -2.280479907989502 -2.280479907989502 -2.2667229175567627 
-2.280479907989502 -2.2667229175567627 -2.2667229175567627 -2.2554430961608887 -2.2667229175567627 
-2.2554430961608887 -2.2554430961608887 -2.245729923248291 -2.2554430961608887 -2.245729923248291 
-2.245729923248291 -2.236644983291626 -2.245729923248291 -2.236644983291626 -2.236644983291626 
-2.2272698879241943 -2.236644983291626 -2.2272698879241943 -2.2272698879241943 -2.216679096221924 
-2.2272698879241943 -2.216679096221924 -2.216679096221924 -2.2038888931274414 -2.216679096221924 
-2.2038888931274414 -2.2038888931274414 -2.1879220008850098 -2.2038888931274414 -2.1879220008850098 
-2.1879220008850098 -2.1677699089050293 -2.1879220008850098 -2.1677699089050293 -2.1677699089050293 
-2.142487049102783 -2.1677699089050293 -2.142487049102783 -2.142487049102783 -2.111125946044922 
-2.142487049102783 -2.111125946044922 -2.111125946044922 -2.0727319717407227 -2.111125946044922 
-2.0727319717407227 -2.0727319717407227 -2.026762008666992 -2.0727319717407227 -2.026762008666992 
-2.026762008666992 -1.9724860191345215 -2.026762008666992 -1.9724860191345215 -1.9724860191345215 
-1.9059619903564453 -1.9724860191345215 -1.9059619903564453 -1.7736250162124634 -1.7735029458999634 
-1.7736250162124634 -1.7735029458999634 -1.7738759517669678 -1.7736250162124634 -1.7738759517669678 
-1.7736250162124634 -1.7742459774017334 -1.7738759517669678 -1.7742459774017334 -1.7738759517669678 
-1.7747349739074707 -1.7742459774017334 -1.7747349739074707 -1.7742459774017334 -1.7753349542617798 
-1.7747349739074707 -1.7753349542617798 -1.7747349739074707 -1.7760380506515503 -1.7753349542617798 
-1.7760380506515503 -1.7753349542617798 -1.7787339687347412 -1.777745008468628 -1.7787339687347412 
-1.777745008468628 -1.777745008468628 -1.7768399715423584 -1.777745008468628 -1.7768399715423584 
-1.7768399715423584 -1.7760380506515503 -1.7768399715423584 -1.7760380506515503 -1.7798030376434326 
-1.7787339687347412 -1.7798030376434326 -1.7787339687347412 -1.7809580564498901 -1.7798030376434326 
-1.7809580564498901 -1.7798030376434326 -1.786201000213623 -1.784801959991455 -1.786201000213623 
-1.784801959991455 -1.784801959991455 -1.7834620475769043 -1.784801959991455 -1.7834620475769043 
-1.7834620475769043 -1.7821810245513916 -1.7834620475769043 -1.7821810245513916 -1.789113998413086 
-1.7876349687576294 -1.789113998413086 -1.7876349687576294 -1.7821810245513916 -1.7809580564498901 
-1.7821810245513916 -1.7809580564498901 -1.7876349687576294 -1.786201000213623 -1.7876349687576294 
-1.786201000213623 -1.7906190156936646 -1.789113998413086 -1.7906190156936646 -1.789113998413086 
-1.7921509742736816 -1.7906190156936646 -1.7921509742736816 -1.7906190156936646 -1.7937099933624268 
-1.7921509742736816 -1.7937099933624268 -1.7921509742736816 -1.7952970266342163 -1.7937099933624268 
-1.7952970266342163 -1.7937099933624268 -1.7969110012054443 -1.7952970266342163 -1.7969110012054443 
-1.7952970266342163 -1.798545002937317 -1.7969110012054443 -1.798545002937317 -1.7969110012054443 
-1.8001949787139893 -1.798545002937317 -1.8001949787139893 -1.798545002937317 -1.9059619903564453 
-1.8326549530029297 -1.9059619903564453 -1.8326549530029297 -1.8052890300750732 -1.803568959236145 
-1.8052890300750732 -1.803568959236145 -1.803568959236145 -1.8018720149993896 -1.803568959236145 
-1.8018720149993896 -1.8106629848480225 -1.8088330030441284 -1.8106629848480225 -1.8088330030441284 
-1.8070429563522339 -1.8052890300750732 -1.8070429563522339 -1.8052890300750732 -1.8088330030441284 
-1.8070429563522339 -1.8088330030441284 -1.8070429563522339 -1.8125439882278442 -1.8106629848480225 
-1.8125439882278442 -1.8106629848480225 -1.8018720149993896 -1.8001949787139893 -1.8018720149993896 
-1.8001949787139893 -1.816467046737671 -1.8144810199737549 -1.816467046737671 -1.8144810199737549 
-1.8144810199737549 -1.8125439882278442 -1.8144810199737549 -1.8125439882278442 -1.8206210136413574 
-1.818505048751831 -1.8206210136413574 -1.818505048751831 -1.8228189945220947 -1.8206210136413574 
-1.8228189945220947 -1.8206210136413574 -1.8251110315322876 -1.8228189945220947 -1.8251110315322876 
-1.8228189945220947 -1.818505048751831 -1.816467046737671 -1.818505048751831 -1.816467046737671 
-1.8326549530029297 -1.830016016960144 -1.8326549530029297 -1.830016016960144 -1.827502965927124 
-1.8251110315322876 -1.827502965927124 -1.8251110315322876 -1.830016016960144 -1.827502965927124 
-1.830016016960144 -1.827502965927124 
  0.000000000000E+00
  0.525035540107E+00
  0.000000000000E+00
  0.525035540107E+00
  0.525035540107E+00
  0.829057477759E+00
  0.525035540107E+00
  0.829057477759E+00
  0.829057477759E+00
  0.946109543814E+00
  0.829057477759E+00
  0.946109543814E+00
  0.946109543814E+00
  0.995987229715E+00
  0.946109543814E+00
  0.995987229715E+00
  0.995987229715E+00
  0.101209591136E+01
  0.995987229715E+00
  0.101209591136E+01
  0.101209591136E+01
  0.104189770981E+01
  0.101209591136E+01
  0.104189770981E+01
  0.104189770981E+01
  0.104372312208E+01
  0.104189770981E+01
  0.104372312208E+01
  0.104372312208E+01
  0.105975037809E+01
  0.104372312208E+01
  0.105975037809E+01
  0.105975037809E+01
  0.107184294865E+01
  0.105975037809E+01
  0.107184294865E+01
  0.107184294865E+01
  0.105680442057E+01
  0.107184294865E+01
  0.105680442057E+01
  0.105680442057E+01
  0.105821709183E+01
  0.105680442057E+01
  0.105821709183E+01
  0.105821709183E+01
  0.101754005637E+01
  0.105821709183E+01
  0.101754005637E+01
  0.101754005637E+01
  0.987383797815E+00
  0.101754005637E+01
  0.987383797815E+00
  0.987383797815E+00
  0.965932358249E+00
  0.987383797815E+00
  0.965932358249E+00
  0.965932358249E+00
  0.946265471113E+00
  0.965932358249E+00
  0.946265471113E+00
  0.946265471113E+00
  0.922797648459E+00
  0.946265471113E+00
  0.922797648459E+00
  0.922797648459E+00
  0.894309209501E+00
  0.922797648459E+00
  0.894309209501E+00
  0.894309209501E+00
  0.860018634360E+00
  0.894309209501E+00
  0.860018634360E+00
  0.860018634360E+00
  0.822871840825E+00
  0.860018634360E+00
  0.822871840825E+00
  0.822871840825E+00
  0.785068571817E+00
  0.822871840825E+00
  0.785068571817E+00
  0.785068571817E+00
  0.747429002534E+00
  0.785068571817E+00
  0.747429002534E+00
  0.747429002534E+00
  0.709735548549E+00
  0.747429002534E+00
  0.709735548549E+00
  0.709735548549E+00
  0.672934527189E+00
  0.709735548549E+00
  0.672934527189E+00
  0.672934527189E+00
  0.632377749876E+00
  0.672934527189E+00
  0.632377749876E+00
  0.632377749876E+00
  0.587397953843E+00
  0.632377749876E+00
  0.587397953843E+00
  0.587397953843E+00
  0.539920872620E+00
  0.587397953843E+00
  0.539920872620E+00
  0.539920872620E+00
  0.496928031076E+00
  0.539920872620E+00
  0.496928031076E+00
  0.496928031076E+00
  0.445728914127E+00
  0.496928031076E+00
  0.445728914127E+00
  0.445728914127E+00
  0.385687879990E+00
  0.445728914127E+00
  0.385687879990E+00
  0.385687879990E+00
  0.305624271710E+00
  0.385687879990E+00
  0.305624271710E+00
  0.254761656412E-01
  0.000000000000E+00
  0.254761656412E-01
  0.000000000000E+00
  0.301914041463E-01
  0.254761656412E-01
  0.301914041463E-01
  0.254761656412E-01
  0.315996445674E-01
  0.301914041463E-01
  0.315996445674E-01
  0.301914041463E-01
  0.370897377306E-01
  0.315996445674E-01
  0.370897377306E-01
  0.315996445674E-01
  0.448237009579E-01
  0.370897377306E-01
  0.448237009579E-01
  0.370897377306E-01
  0.536153176952E-01
  0.448237009579E-01
  0.536153176952E-01
  0.448237009579E-01
  0.717832075109E-01
  0.699436819135E-01
  0.717832075109E-01
  0.699436819135E-01
  0.699436819135E-01
  0.631414714099E-01
  0.699436819135E-01
  0.631414714099E-01
  0.631414714099E-01
  0.536153176952E-01
  0.631414714099E-01
  0.536153176952E-01
  0.756581636250E-01
  0.717832075109E-01
  0.756581636250E-01
  0.717832075109E-01
  0.802383370682E-01
  0.756581636250E-01
  0.802383370682E-01
  0.756581636250E-01
  0.878510354969E-01
  0.850487785437E-01
  0.878510354969E-01
  0.850487785437E-01
  0.850487785437E-01
  0.830194984716E-01
  0.850487785437E-01
  0.830194984716E-01
  0.830194984716E-01
  0.814741539312E-01
  0.830194984716E-01
  0.814741539312E-01
  0.917551949650E-01
  0.896934285240E-01
  0.917551949650E-01
  0.896934285240E-01
  0.814741539312E-01
  0.802383370682E-01
  0.814741539312E-01
  0.802383370682E-01
  0.896934285240E-01
  0.878510354969E-01
  0.896934285240E-01
  0.878510354969E-01
  0.923593513852E-01
  0.917551949650E-01
  0.923593513852E-01
  0.917551949650E-01
  0.953435371372E-01
  0.923593513852E-01
  0.953435371372E-01
  0.923593513852E-01
  0.965129824774E-01
  0.953435371372E-01
  0.965129824774E-01
  0.953435371372E-01
  0.973208262494E-01
  0.965129824774E-01
  0.973208262494E-01
  0.965129824774E-01
  0.983070340058E-01
  0.973208262494E-01
  0.983070340058E-01
  0.973208262494E-01
  0.100395156559E+00
  0.983070340058E-01
  0.100395156559E+00
  0.983070340058E-01
  0.101578082240E+00
  0.100395156559E+00
  0.101578082240E+00
  0.100395156559E+00
  0.305624271710E+00
  0.114839420327E+00
  0.305624271710E+00
  0.114839420327E+00
  0.107176875052E+00
  0.104018112836E+00
  0.107176875052E+00
  0.104018112836E+00
  0.104018112836E+00
  0.101969703486E+00
  0.104018112836E+00
  0.101969703486E+00
  0.102578226577E+00
  0.103295018414E+00
  0.102578226577E+00
  0.103295018414E+00
  0.103387607021E+00
  0.107176875052E+00
  0.103387607021E+00
  0.107176875052E+00
  0.103295018414E+00
  0.103387607021E+00
  0.103295018414E+00
  0.103387607021E+00
  0.106267525288E+00
  0.102578226577E+00
  0.106267525288E+00
  0.102578226577E+00
  0.101969703486E+00
  0.101578082240E+00
  0.101969703486E+00
  0.101578082240E+00
  0.106435287206E+00
  0.107005190631E+00
  0.106435287206E+00
  0.107005190631E+00
  0.107005190631E+00
  0.106267525288E+00
  0.107005190631E+00
  0.106267525288E+00
  0.107734200192E+00
  0.107081192933E+00
  0.107734200192E+00
  0.107081192933E+00
  0.107692023934E+00
  0.107734200192E+00
  0.107692023934E+00
  0.107734200192E+00
  0.108886390164E+00
  0.107692023934E+00
  0.108886390164E+00
  0.107692023934E+00
  0.107081192933E+00
  0.106435287206E+00
  0.107081192933E+00
  0.106435287206E+00
  0.114839420327E+00
  0.110840678983E+00
  0.114839420327E+00
  0.110840678983E+00
  0.110404704615E+00
  0.108886390164E+00
  0.110404704615E+00
  0.108886390164E+00
  0.110840678983E+00
  0.110404704615E+00
  0.110840678983E+00
  0.110404704615E+00

1 3 2
3 4 2
5 7 6
7 8 6
9 11 10
11 12 10
13 15 14
15 16 14
17 19 18
19 20 18
21 23 22
23 24 22
25 27 26
27 28 26
29 31 30
31 32 30
33 35 34
35 36 34
37 39 38
39 40 38
41 43 42
43 44 42
45 47 46
47 48 46
49 51 50
51 52 50
53 55 54
55 56 54
57 59 58
59 60 58
61 63 62
63 64 62
65 67 66
67 68 66
69 71 70
71 72 70
73 75 74
75 76 74
77 79 78
79 80 78
81 83 82
83 84 82
85 87 86
87 88 86
89 91 90
91 92 90
93 95 94
95 96 94
97 99 98
99 100 98
101 103 102
103 104 102
105 107 106
107 108 106
109 111 110
111 112 110
113 115 114
115 116 114
117 119 118
119 120 118
121 124 122
121 123 124
125 128 126
125 127 128
129 132 130
129 131 132
133 136 134
133 135 136
137 140 138
137 139 140
141 144 142
141 143 144
145 148 146
145 147 148
149 152 150
149 151 152
153 156 154
153 155 156
157 160 158
157 159 160
161 164 162
161 163 164
165 168 166
165 167 168
169 172 170
169 171 172
173 176 174
173 175 176
177 180 178
177 179 180
181 184 182
181 183 184
185 188 186
185 187 188
189 192 190
189 191 192
193 196 194
193 195 196
197 200 198
197 199 200
201 204 202
201 203 204
205 208 206
205 207 208
209 212 210
209 211 212
213 216 214
213 215 216
217 219 218
219 220 218
221 224 222
221 223 224
225 228 226
225 227 228
229 232 230
229 231 232
233 236 234
233 235 236
237 240 238
237 239 240
241 244 242
241 243 244
245 248 246
245 247 248
249 252 250
249 251 252
253 256 254
253 255 256
257 260 258
257 259 260
261 264 262
261 263 264
265 268 266
265 267 268
269 272 270
269 271 272
273 276 274
273 275 276
277 280 278
277 279 280
281 284 282
281 283 284
